
                                 *****************
                                 * O   R   C   A *
                                 *****************

           --- An Ab Initio, DFT and Semiempirical electronic structure package ---

                  #######################################################
                  #                        -***-                        #
                  #  Department of molecular theory and spectroscopy    #
                  #              Directorship: Frank Neese              #
                  # Max Planck Institute for Chemical Energy Conversion #
                  #                  D-45470 Muelheim/Ruhr              #
                  #                       Germany                       #
                  #                                                     #
                  #                  All rights reserved                #
                  #                        -***-                        #
                  #######################################################


                         Program Version 4.0.1.2 - RELEASE -


 With contributions from (in alphabetic order):
   Daniel Aravena         : Magnetic Properties
   Michael Atanasov       : Ab Initio Ligand Field Theory
   Ute Becker             : Parallelization
   Martin Brehm           : Molecular dynamics
   Dmytro Bykov           : SCF Hessian
   Vijay G. Chilkuri      : MRCI spin determinant printing
   Dipayan Datta          : RHF DLPNO-CCSD density
   Achintya Kumar Dutta   : EOM-CC, STEOM-CC
   Dmitry Ganyushin       : Spin-Orbit,Spin-Spin,Magnetic field MRCI
   Yang Guo               : DLPNO-NEVPT2, CIM, IAO-localization
   Andreas Hansen         : Spin unrestricted coupled pair/coupled cluster methods
   Lee Huntington         : MR-EOM, pCC
   Robert Izsak           : Overlap fitted RIJCOSX, COSX-SCS-MP3, EOM
   Christian Kollmar      : KDIIS, OOCD, Brueckner-CCSD(T), CCSD density
   Simone Kossmann        : Meta GGA functionals, TD-DFT gradient, OOMP2, MP2 Hessian
   Martin Krupicka        : AUTO-CI
   Dagmar Lenk            : GEPOL surface
   Dimitrios Liakos       : Extrapolation schemes; parallel MDCI
   Dimitrios Manganas     : ROCIS; embedding schemes
   Dimitrios Pantazis     : SARC Basis sets
   Taras Petrenko         : DFT Hessian,TD-DFT gradient, ASA, ECA, R-Raman, ABS, FL, XAS/XES, NRVS
   Peter Pinski           : DLPNO-MP2
   Christoph Reimann      : Effective Core Potentials
   Marius Retegan         : Local ZFS, SOC
   Christoph Riplinger    : Optimizer, TS searches, QM/MM, DLPNO-CCSD(T), (RO)-DLPNO pert. Triples
   Tobias Risthaus        : Range-separated hybrids, TD-DFT gradient, RPA, STAB
   Michael Roemelt        : Restricted open shell CIS
   Masaaki Saitow         : Open-shell DLPNO
   Barbara Sandhoefer     : DKH picture change effects
   Kantharuban Sivalingam : CASSCF convergence, NEVPT2, FIC-MRCI
   Georgi Stoychev        : AutoAux
   Boris Wezisla          : Elementary symmetry handling
   Frank Wennmohs         : Technical directorship


 We gratefully acknowledge several colleagues who have allowed us to
 interface, adapt or use parts of their codes:
   Stefan Grimme, W. Hujo, H. Kruse,             : VdW corrections, initial TS optimization,
                  C. Bannwarth                     DFT functionals, gCP, sTDA/sTD-DF
   Ed Valeev                                     : LibInt (2-el integral package), F12 methods
   Garnet Chan, S. Sharma, J. Yang, R. Olivares  : DMRG
   Ulf Ekstrom                                   : XCFun DFT Library
   Mihaly Kallay                                 : mrcc  (arbitrary order and MRCC methods)
   Andreas Klamt, Michael Diedenhofen            : otool_cosmo (COSMO solvation model)
   Jiri Pittner, Ondrej Demel                    : Mk-CCSD
   Frank Weinhold                                : gennbo (NPA and NBO analysis)
   Christopher J. Cramer and Donald G. Truhlar   : smd solvation model


 Your calculation uses the libint2 library for the computation of 2-el integrals
 For citations please refer to: http://libint.valeyev.net

 This ORCA versions uses:
   CBLAS   interface :  Fast vector & matrix operations
   LAPACKE interface :  Fast linear algebra routines
   SCALAPACK package :  Parallel linear algebra routines


Your calculation utilizes the basis: def2-SVP
   F. Weigend and R. Ahlrichs, Phys. Chem. Chem. Phys. 7, 3297 (2005).

================================================================================
                                        WARNINGS
                       Please study these warnings very carefully!
================================================================================

Warning: TCutStore was < 0. Adjusted to Thresh (uncritical)

WARNING: your system is open-shell and RHF/RKS was chosen
  ===> : WILL SWITCH to UHF/UKS


WARNING: Geometry Optimization
  ===> : Switching off AutoStart
         For restart on a previous wavefunction, please use MOREAD

INFO   : the flag for use of LIBINT has been found!

================================================================================
                                       INPUT FILE
================================================================================
NAME = orca.inp
|  1> !def2-SVP b3lyp opt numfreq
|  2>  
|  3> 
|  4> *xyz 0 2
|  5> C       -0.507912712      0.000000000     -1.794734841
|  6> H       -0.507912712      1.019690000     -2.193990841
|  7> H        0.375165288     -0.509845000     -2.193990841
|  8> C       -0.507912712      0.000000000     -0.264746841
|  9> H       -1.390990712      0.509845000      0.134509159
| 10> H       -0.507912712     -1.019690000      0.134509159
| 11> H        0.375165288      0.509845000      0.134509159
| 12> *
| 13> 
| 14>                          ****END OF INPUT****
================================================================================

                       *****************************
                       * Geometry Optimization Run *
                       *****************************

Geometry optimization settings:
Update method            Update   .... BFGS
Choice of coordinates    CoordSys .... Redundant Internals
Initial Hessian          InHess   .... Almoef's Model

Convergence Tolerances:
Energy Change            TolE     ....  5.0000e-06 Eh
Max. Gradient            TolMAXG  ....  3.0000e-04 Eh/bohr
RMS Gradient             TolRMSG  ....  1.0000e-04 Eh/bohr
Max. Displacement        TolMAXD  ....  4.0000e-03 bohr
RMS Displacement         TolRMSD  ....  2.0000e-03 bohr

------------------------------------------------------------------------------
                        ORCA OPTIMIZATION COORDINATE SETUP
------------------------------------------------------------------------------

The optimization will be done in new redundant internal coordinates
Making redundant internal coordinates   ...  (new redundants) done
Evaluating the initial hessian          ...  (Almloef) done
Evaluating the coordinates              ...  done
Calculating the B-matrix                .... done
Calculating the G-matrix                .... done
Diagonalizing the G-matrix              .... done
The first mode is                       ....    6
The number of degrees of freedom        ....   15

    -----------------------------------------------------------------
                    Redundant Internal Coordinates


    -----------------------------------------------------------------
         Definition                    Initial Value    Approx d2E/dq
    -----------------------------------------------------------------
      1. B(H   1,C   0)                  1.0951         0.353458   
      2. B(H   2,C   0)                  1.0951         0.353458   
      3. B(C   3,C   0)                  1.5300         0.373591   
      4. B(H   4,C   3)                  1.0951         0.353458   
      5. B(H   5,C   3)                  1.0951         0.353458   
      6. B(H   6,C   3)                  1.0951         0.353458   
      7. A(H   2,C   0,C   3)          111.3826         0.323332   
      8. A(H   1,C   0,C   3)          111.3827         0.323332   
      9. A(H   1,C   0,H   2)          107.4940         0.289146   
     10. A(H   4,C   3,H   5)          107.4940         0.289146   
     11. A(C   0,C   3,H   5)          111.3827         0.323332   
     12. A(C   0,C   3,H   6)          111.3826         0.323332   
     13. A(H   5,C   3,H   6)          107.4940         0.289146   
     14. A(H   4,C   3,H   6)          107.4940         0.289145   
     15. A(C   0,C   3,H   4)          111.3826         0.323332   
     16. D(H   4,C   3,C   0,H   2)    180.0000         0.010438   
     17. D(H   5,C   3,C   0,H   1)    180.0000         0.010438   
     18. D(H   5,C   3,C   0,H   2)    -60.0000         0.010438   
     19. D(H   6,C   3,C   0,H   1)    -60.0000         0.010438   
     20. D(H   6,C   3,C   0,H   2)     60.0000         0.010438   
     21. D(H   4,C   3,C   0,H   1)     60.0000         0.010438   
    -----------------------------------------------------------------

Number of atoms                         .... 7
Number of degrees of freedom            .... 21

         *************************************************************
         *                GEOMETRY OPTIMIZATION CYCLE   1            *
         *************************************************************
---------------------------------
CARTESIAN COORDINATES (ANGSTROEM)
---------------------------------
  C     -0.507913    0.000000   -1.794735
  H     -0.507913    1.019690   -2.193991
  H      0.375165   -0.509845   -2.193991
  C     -0.507913    0.000000   -0.264747
  H     -1.390991    0.509845    0.134509
  H     -0.507913   -1.019690    0.134509
  H      0.375165    0.509845    0.134509

----------------------------
CARTESIAN COORDINATES (A.U.)
----------------------------
  NO LB      ZA    FRAG     MASS         X           Y           Z
   0 C     6.0000    0    12.011   -0.959816    0.000000   -3.391557
   1 H     1.0000    0     1.008   -0.959816    1.926935   -4.146042
   2 H     1.0000    0     1.008    0.708960   -0.963467   -4.146042
   3 C     6.0000    0    12.011   -0.959816    0.000000   -0.500299
   4 H     1.0000    0     1.008   -2.628592    0.963467    0.254185
   5 H     1.0000    0     1.008   -0.959816   -1.926935    0.254185
   6 H     1.0000    0     1.008    0.708960    0.963467    0.254185

--------------------------------
INTERNAL COORDINATES (ANGSTROEM)
--------------------------------
 C      0   0   0     0.000000000000     0.00000000     0.00000000
 H      1   0   0     1.095067600487     0.00000000     0.00000000
 H      1   2   0     1.095068048865   107.49399115     0.00000000
 C      1   2   3     1.529988000000   111.38265079   122.27226300
 H      4   1   2     1.095068048865   111.38264160    60.00001562
 H      4   1   2     1.095067600487   111.38265079   180.00000000
 H      4   1   2     1.095068048865   111.38264160   299.99998438

---------------------------
INTERNAL COORDINATES (A.U.)
---------------------------
 C      0   0   0     0.000000000000     0.00000000     0.00000000
 H      1   0   0     2.069377863050     0.00000000     0.00000000
 H      1   2   0     2.069378710362   107.49399115     0.00000000
 C      1   2   3     2.891258308186   111.38265079   122.27226300
 H      4   1   2     2.069378710362   111.38264160    60.00001562
 H      4   1   2     2.069377863050   111.38265079   180.00000000
 H      4   1   2     2.069378710362   111.38264160   299.99998438

---------------------
BASIS SET INFORMATION
---------------------
There are 2 groups of distinct atoms

 Group   1 Type C   : 7s4p1d contracted to 3s2p1d pattern {511/31/1}
 Group   2 Type H   : 4s1p contracted to 2s1p pattern {31/1}

Atom   0C    basis set group =>   1
Atom   1H    basis set group =>   2
Atom   2H    basis set group =>   2
Atom   3C    basis set group =>   1
Atom   4H    basis set group =>   2
Atom   5H    basis set group =>   2
Atom   6H    basis set group =>   2
------------------------------------------------------------------------------
                           ORCA GTO INTEGRAL CALCULATION
------------------------------------------------------------------------------

                         BASIS SET STATISTICS AND STARTUP INFO

 # of primitive gaussian shells          ...   49
 # of primitive gaussian functions       ...   83
 # of contracted shells                  ...   27
 # of contracted basis functions         ...   53
 Highest angular momentum                ...    2
 Maximum contraction depth               ...    5
 Integral package used                   ... LIBINT
 Integral threshhold            Thresh   ...  2.500e-11
 Primitive cut-off              TCut     ...  2.500e-12


------------------------------ INTEGRAL EVALUATION ----------------------------


 * One electron integrals 
 Pre-screening matrix                    ... done
 Shell pair data                         ... done (   0.009 sec)

-------------------------------------------------------------------------------
                                 ORCA SCF
-------------------------------------------------------------------------------

------------
SCF SETTINGS
------------
Hamiltonian:
 Density Functional     Method          .... DFT(GTOs)
 Exchange Functional    Exchange        .... B88
   X-Alpha parameter    XAlpha          ....  0.666667
   Becke's b parameter  XBeta           ....  0.004200
 Correlation Functional Correlation     .... LYP
 LDA part of GGA corr.  LDAOpt          .... VWN-5
 Gradients option       PostSCFGGA      .... off
 Hybrid DFT is turned on
   Fraction HF Exchange ScalHFX         ....  0.200000
   Scaling of DF-GGA-X  ScalDFX         ....  0.720000
   Scaling of DF-GGA-C  ScalDFC         ....  0.810000
   Scaling of DF-LDA-C  ScalLDAC        ....  1.000000
   Perturbative correction              ....  0.000000
   NL short-range parameter             ....  4.800000


General Settings:
 Integral files         IntName         .... orca
 Hartree-Fock type      HFTyp           .... UHF
 Total Charge           Charge          ....    0
 Multiplicity           Mult            ....    2
 Number of Electrons    NEL             ....   17
 Basis Dimension        Dim             ....   53
 Nuclear Repulsion      ENuc            ....     36.5966395548 Eh

Convergence Acceleration:
 DIIS                   CNVDIIS         .... on
   Start iteration      DIISMaxIt       ....    12
   Startup error        DIISStart       ....  0.200000
   # of expansion vecs  DIISMaxEq       ....     5
   Bias factor          DIISBfac        ....   1.050
   Max. coefficient     DIISMaxC        ....  10.000
 Newton-Raphson         CNVNR           .... off
 SOSCF                  CNVSOSCF        .... off
 Level Shifting         CNVShift        .... on
   Level shift para.    LevelShift      ....    0.2500
   Turn off err/grad.   ShiftErr        ....    0.0010
 Zerner damping         CNVZerner       .... off
 Static damping         CNVDamp         .... on
   Fraction old density DampFac         ....    0.7000
   Max. Damping (<1)    DampMax         ....    0.9800
   Min. Damping (>=0)   DampMin         ....    0.0000
   Turn off err/grad.   DampErr         ....    0.1000
 Fernandez-Rico         CNVRico         .... off

SCF Procedure:
 Maximum # iterations   MaxIter         ....   125
 SCF integral mode      SCFMode         .... Direct
   Integral package                     .... LIBINT
 Reset frequeny         DirectResetFreq ....    20
 Integral Threshold     Thresh          ....  2.500e-11 Eh
 Primitive CutOff       TCut            ....  2.500e-12 Eh

Convergence Tolerance:
 Convergence Check Mode ConvCheckMode   .... Total+1el-Energy
 Convergence forced     ConvForced      .... 0
 Energy Change          TolE            ....  1.000e-08 Eh
 1-El. energy change                    ....  1.000e-05 Eh
 DIIS Error             TolErr          ....  5.000e-07


Diagonalization of the overlap matrix:
Smallest eigenvalue                        ... 5.238e-03
Time for diagonalization                   ...    0.569 sec
Threshold for overlap eigenvalues          ... 1.000e-08
Number of eigenvalues below threshold      ... 0
Time for construction of square roots      ...    0.012 sec
Total time needed                          ...    0.584 sec

-------------------
DFT GRID GENERATION
-------------------

General Integration Accuracy     IntAcc      ...  4.340
Radial Grid Type                 RadialGrid  ... Gauss-Chebyshev
Angular Grid (max. acc.)         AngularGrid ... Lebedev-110
Angular grid pruning method      GridPruning ... 3 (G Style)
Weight generation scheme         WeightScheme... Becke
Basis function cutoff            BFCut       ...    1.0000e-11
Integration weight cutoff        WCut        ...    1.0000e-14
Grids for H and He will be reduced by one unit

# of grid points (after initial pruning)     ...   7282 (   0.0 sec)
# of grid points (after weights+screening)   ...   7047 (   0.0 sec)
nearest neighbour list constructed           ...    0.0 sec
Grid point re-assignment to atoms done       ...    0.0 sec
Grid point division into batches done        ...    0.0 sec
Reduced shell lists constructed in    0.1 sec

Total number of grid points                  ...     7047
Total number of batches                      ...      115
Average number of points per batch           ...       61
Average number of grid points per atom       ...     1007
Average number of shells per batch           ...    24.38 (90.29%)
Average number of basis functions per batch  ...    47.81 (90.21%)
Average number of large shells per batch     ...    22.29 (91.44%)
Average number of large basis fcns per batch ...    43.14 (90.23%)
Maximum spatial batch extension              ...  25.60, 19.09, 20.51 au
Average spatial batch extension              ...   4.69,  4.44,  4.68 au

Time for grid setup =    0.513 sec

------------------------------
INITIAL GUESS: MODEL POTENTIAL
------------------------------
Loading Hartree-Fock densities                     ... done
Calculating cut-offs                               ... done
Setting up the integral package                    ... done
Initializing the effective Hamiltonian             ... done
Starting the Coulomb interaction                   ... done (   0.1 sec)
Reading the grid                                   ... done
Mapping shells                                     ... done
Starting the XC term evaluation                    ... done (   0.1 sec)
  promolecular density results
     # of electrons  =     16.990735761
     EX              =    -11.701901645
     EC              =     -0.515451862
     EX+EC           =    -12.217353507
Transforming the Hamiltonian                       ... done (   0.0 sec)
Diagonalizing the Hamiltonian                      ... done (   0.0 sec)
Back transforming the eigenvectors                 ... done (   0.0 sec)
Now organizing SCF variables                       ... done
                      ------------------
                      INITIAL GUESS DONE (   0.9 sec)
                      ------------------
--------------
SCF ITERATIONS
--------------
ITER       Energy         Delta-E        Max-DP      RMS-DP      [F,P]     Damp
               ***  Starting incremental Fock matrix formation  ***
  0    -78.9539616084   0.000000000000 0.03871318  0.00180965  0.1695179 0.7000
  1    -78.9873612551  -0.033399646705 0.02397873  0.00132433  0.0893149 0.7000
                               ***Turning on DIIS***
  2    -79.0017243375  -0.014363082399 0.03389046  0.00233731  0.0343782 0.0000
  3    -79.0217101719  -0.019985834443 0.01712676  0.00086459  0.0481726 0.0000
  4    -79.0275624895  -0.005852317577 0.00438607  0.00024631  0.0090005 0.0000
  5    -79.0278674119  -0.000304922447 0.00131228  0.00009444  0.0026843 0.0000
  6    -79.0278986356  -0.000031223691 0.00108393  0.00006310  0.0006566 0.0000
  7    -79.0279043756  -0.000005739972 0.00040829  0.00001263  0.0003050 0.0000
  8    -79.0279050157  -0.000000640059 0.00011339  0.00000593  0.0000731 0.0000
  9    -79.0279051106  -0.000000094930 0.00003254  0.00000166  0.0000083 0.0000
                 **** Energy Check signals convergence ****

               *****************************************************
               *                     SUCCESS                       *
               *           SCF CONVERGED AFTER  10 CYCLES          *
               *****************************************************

Setting up the final grid:

General Integration Accuracy     IntAcc      ...  4.670
Radial Grid Type                 RadialGrid  ... Gauss-Chebyshev
Angular Grid (max. acc.)         AngularGrid ... Lebedev-302
Angular grid pruning method      GridPruning ... 3 (G Style)
Weight generation scheme         WeightScheme... Becke
Basis function cutoff            BFCut       ...    1.0000e-11
Integration weight cutoff        WCut        ...    1.0000e-14
Grids for H and He will be reduced by one unit

# of grid points (after initial pruning)     ...  29394 (   0.0 sec)
# of grid points (after weights+screening)   ...  28222 (   0.0 sec)
nearest neighbour list constructed           ...    0.0 sec
Grid point re-assignment to atoms done       ...    0.0 sec
Grid point division into batches done        ...    0.1 sec
Reduced shell lists constructed in    0.2 sec

Total number of grid points                  ...    28222
Total number of batches                      ...      445
Average number of points per batch           ...       63
Average number of grid points per atom       ...     4032
Average number of shells per batch           ...    22.67 (83.95%)
Average number of basis functions per batch  ...    44.28 (83.55%)
Average number of large shells per batch     ...    20.27 (89.43%)
Average number of large basis fcns per batch ...    39.09 (88.29%)
Maximum spatial batch extension              ...  18.89, 18.09, 18.30 au
Average spatial batch extension              ...   3.04,  3.03,  3.06 au

Final grid set up in    0.2 sec
Final integration                            ... done (   0.3 sec)
Change in XC energy                          ...    -0.000472862
Integrated number of electrons               ...    17.000035521
Previous integrated no of electrons          ...    16.997164452

----------------
TOTAL SCF ENERGY
----------------

Total Energy       :          -79.02837798 Eh           -2150.47149 eV

Components:
Nuclear Repulsion  :           36.59663955 Eh             995.84519 eV
Electronic Energy  :         -115.62501754 Eh           -3146.31668 eV
One Electron Energy:         -177.20401979 Eh           -4821.96652 eV
Two Electron Energy:           61.57900226 Eh            1675.64984 eV

Virial components:
Potential Energy   :         -157.07452887 Eh           -4274.21523 eV
Kinetic Energy     :           78.04615088 Eh            2123.74373 eV
Virial Ratio       :            2.01258521


DFT components:
N(Alpha)           :        9.000017925146 electrons
N(Beta)            :        8.000017595469 electrons
N(Total)           :       17.000035520615 electrons
E(X)               :       -9.562535531757 Eh       
E(C)               :       -0.611894790463 Eh       
E(XC)              :      -10.174430322221 Eh       

---------------
SCF CONVERGENCE
---------------

  Last Energy change         ...   -8.9214e-09  Tolerance :   1.0000e-08
  Last MAX-Density change    ...    1.1178e-05  Tolerance :   1.0000e-07
  Last RMS-Density change    ...    5.9486e-07  Tolerance :   5.0000e-09
  Last DIIS Error            ...    1.4533e-06  Tolerance :   5.0000e-07

             **** THE GBW FILE WAS UPDATED (orca.gbw) ****
             **** DENSITY FILE WAS UPDATED (orca.scfp.tmp) ****
             **** ENERGY FILE WAS UPDATED (orca.en.tmp) ****
----------------------
UHF SPIN CONTAMINATION
----------------------

Warning: in a DFT calculation there is little theoretical justification to 
         calculate <S**2> as in Hartree-Fock theory. We will do it anyways
         but you should keep in mind that the values have only limited relevance

Expectation value of <S**2>     :     0.752691
Ideal value S*(S+1) for S=0.5   :     0.750000
Deviation                       :     0.002691

----------------
ORBITAL ENERGIES
----------------
                 SPIN UP ORBITALS
  NO   OCC          E(Eh)            E(eV) 
   0   1.0000     -10.196993      -277.4743 
   1   1.0000     -10.181700      -277.0581 
   2   1.0000      -0.743539       -20.2327 
   3   1.0000      -0.600260       -16.3339 
   4   1.0000      -0.437899       -11.9158 
   5   1.0000      -0.417672       -11.3654 
   6   1.0000      -0.371925       -10.1206 
   7   1.0000      -0.347394        -9.4531 
   8   1.0000      -0.233341        -6.3495 
   9   0.0000       0.069564         1.8929 
  10   0.0000       0.112124         3.0511 
  11   0.0000       0.124406         3.3853 
  12   0.0000       0.139217         3.7883 
  13   0.0000       0.157628         4.2893 
  14   0.0000       0.234316         6.3761 
  15   0.0000       0.415140        11.2965 
  16   0.0000       0.433955        11.8085 
  17   0.0000       0.456674        12.4267 
  18   0.0000       0.492753        13.4085 
  19   0.0000       0.532284        14.4842 
  20   0.0000       0.597976        16.2718 
  21   0.0000       0.620950        16.8969 
  22   0.0000       0.648358        17.6427 
  23   0.0000       0.674969        18.3668 
  24   0.0000       0.689490        18.7620 
  25   0.0000       0.694685        18.9033 
  26   0.0000       0.696550        18.9541 
  27   0.0000       0.876950        23.8630 
  28   0.0000       1.124625        30.6026 
  29   0.0000       1.146728        31.2041 
  30   0.0000       1.359678        36.9987 
  31   0.0000       1.437972        39.1292 
  32   0.0000       1.539365        41.8882 
  33   0.0000       1.597373        43.4667 
  34   0.0000       1.655229        45.0411 
  35   0.0000       1.736739        47.2591 
  36   0.0000       1.777620        48.3715 
  37   0.0000       1.799733        48.9732 
  38   0.0000       1.823250        49.6132 
  39   0.0000       1.831806        49.8460 
  40   0.0000       1.941401        52.8282 
  41   0.0000       2.037268        55.4369 
  42   0.0000       2.143840        58.3369 
  43   0.0000       2.230998        60.7085 
  44   0.0000       2.357426        64.1488 
  45   0.0000       2.426210        66.0205 
  46   0.0000       2.508418        68.2575 
  47   0.0000       2.549752        69.3823 
  48   0.0000       2.705621        73.6237 
  49   0.0000       2.839377        77.2634 
  50   0.0000       2.930251        79.7362 
  51   0.0000       2.951159        80.3051 
  52   0.0000       3.006814        81.8196 

                 SPIN DOWN ORBITALS
  NO   OCC          E(Eh)            E(eV) 
   0   1.0000     -10.182062      -277.0680 
   1   1.0000     -10.181666      -277.0572 
   2   1.0000      -0.728343       -19.8192 
   3   1.0000      -0.579586       -15.7713 
   4   1.0000      -0.431476       -11.7411 
   5   1.0000      -0.402660       -10.9569 
   6   1.0000      -0.363594        -9.8939 
   7   1.0000      -0.341446        -9.2912 
   8   0.0000      -0.064712        -1.7609 
   9   0.0000       0.072583         1.9751 
  10   0.0000       0.117105         3.1866 
  11   0.0000       0.127122         3.4592 
  12   0.0000       0.142337         3.8732 
  13   0.0000       0.164100         4.4654 
  14   0.0000       0.247480         6.7343 
  15   0.0000       0.418221        11.3804 
  16   0.0000       0.440099        11.9757 
  17   0.0000       0.474154        12.9024 
  18   0.0000       0.540535        14.7087 
  19   0.0000       0.553534        15.0624 
  20   0.0000       0.609743        16.5919 
  21   0.0000       0.636540        17.3211 
  22   0.0000       0.654923        17.8214 
  23   0.0000       0.681040        18.5320 
  24   0.0000       0.696802        18.9609 
  25   0.0000       0.701927        19.1004 
  26   0.0000       0.704137        19.1605 
  27   0.0000       0.883660        24.0456 
  28   0.0000       1.134863        30.8812 
  29   0.0000       1.159516        31.5520 
  30   0.0000       1.364744        37.1366 
  31   0.0000       1.454958        39.5914 
  32   0.0000       1.543430        41.9989 
  33   0.0000       1.632635        44.4262 
  34   0.0000       1.658857        45.1398 
  35   0.0000       1.747928        47.5635 
  36   0.0000       1.780903        48.4608 
  37   0.0000       1.807984        49.1978 
  38   0.0000       1.826925        49.7132 
  39   0.0000       1.842829        50.1459 
  40   0.0000       1.963277        53.4235 
  41   0.0000       2.057223        55.9799 
  42   0.0000       2.167199        58.9725 
  43   0.0000       2.256373        61.3990 
  44   0.0000       2.376085        64.6566 
  45   0.0000       2.440705        66.4150 
  46   0.0000       2.515785        68.4580 
  47   0.0000       2.559554        69.6490 
  48   0.0000       2.717831        73.9559 
  49   0.0000       2.855085        77.6908 
  50   0.0000       2.937879        79.9438 
  51   0.0000       2.955839        80.4325 
  52   0.0000       3.018643        82.1415 

                    ********************************
                    * MULLIKEN POPULATION ANALYSIS *
                    ********************************

--------------------------------------------
MULLIKEN ATOMIC CHARGES AND SPIN POPULATIONS
--------------------------------------------
   0 C :   -0.074758    1.043960
   1 H :    0.020253   -0.027215
   2 H :    0.021041   -0.027199
   3 C :   -0.035411   -0.059710
   4 H :    0.022334    0.007922
   5 H :    0.021203    0.007918
   6 H :    0.025339    0.054324
Sum of atomic charges         :    0.0000000
Sum of atomic spin populations:    1.0000000

-----------------------------------------------------
MULLIKEN REDUCED ORBITAL CHARGES AND SPIN POPULATIONS
-----------------------------------------------------
CHARGE
  0 C s       :     3.196076  s :     3.196076
      pz      :     0.947091  p :     2.853540
      px      :     0.940833
      py      :     0.965617
      dz2     :     0.007764  d :     0.025142
      dxz     :     0.004464
      dyz     :     0.005418
      dx2y2   :     0.005157
      dxy     :     0.002339
  1 H s       :     0.956439  s :     0.956439
      pz      :     0.005612  p :     0.023309
      px      :     0.004907
      py      :     0.012791
  2 H s       :     0.955719  s :     0.955719
      pz      :     0.005618  p :     0.023240
      px      :     0.010425
      py      :     0.007197
  3 C s       :     3.018651  s :     3.018651
      pz      :     0.972073  p :     2.987409
      px      :     1.000652
      py      :     1.014683
      dz2     :     0.007005  d :     0.029352
      dxz     :     0.006187
      dyz     :     0.006341
      dx2y2   :     0.004852
      dxy     :     0.004966
  4 H s       :     0.954527  s :     0.954527
      pz      :     0.005234  p :     0.023139
      px      :     0.011017
      py      :     0.006889
  5 H s       :     0.955613  s :     0.955613
      pz      :     0.005220  p :     0.023185
      px      :     0.005021
      py      :     0.012944
  6 H s       :     0.950740  s :     0.950740
      pz      :     0.005711  p :     0.023920
      px      :     0.011015
      py      :     0.007195

SPIN
  0 C s       :     0.163934  s :     0.163934
      pz      :     0.111369  p :     0.883188
      px      :     0.560652
      py      :     0.211167
      dz2     :    -0.000933  d :    -0.003163
      dxz     :    -0.000403
      dyz     :     0.000061
      dx2y2   :    -0.001113
      dxy     :    -0.000775
  1 H s       :    -0.030978  s :    -0.030978
      pz      :     0.000762  p :     0.003763
      px      :     0.002862
      py      :     0.000138
  2 H s       :    -0.030936  s :    -0.030936
      pz      :     0.000772  p :     0.003736
      px      :     0.001027
      py      :     0.001938
  3 C s       :    -0.018380  s :    -0.018380
      pz      :    -0.026113  p :    -0.046393
      px      :    -0.012975
      py      :    -0.007305
      dz2     :     0.000018  d :     0.005063
      dxz     :     0.003315
      dyz     :     0.001122
      dx2y2   :     0.000181
      dxy     :     0.000427
  4 H s       :     0.008010  s :     0.008010
      pz      :    -0.000106  p :    -0.000088
      px      :    -0.000062
      py      :     0.000081
  5 H s       :     0.008004  s :     0.008004
      pz      :    -0.000106  p :    -0.000086
      px      :     0.000050
      py      :    -0.000030
  6 H s       :     0.054315  s :     0.054315
      pz      :    -0.000073  p :     0.000010
      px      :     0.000028
      py      :     0.000054


                     *******************************
                     * LOEWDIN POPULATION ANALYSIS *
                     *******************************

-------------------------------------------
LOEWDIN ATOMIC CHARGES AND SPIN POPULATIONS
-------------------------------------------
   0 C :   -0.029021    0.931471
   1 H :    0.009625    0.005419
   2 H :    0.009845    0.005509
   3 C :   -0.074184   -0.002992
   4 H :    0.025123    0.006787
   5 H :    0.024867    0.006767
   6 H :    0.033745    0.047039

----------------------------------------------------
LOEWDIN REDUCED ORBITAL CHARGES AND SPIN POPULATIONS
----------------------------------------------------
CHARGE
  0 C s       :     2.963804  s :     2.963804
      pz      :     1.014664  p :     3.008164
      px      :     0.963954
      py      :     1.029545
      dz2     :     0.019507  d :     0.057053
      dxz     :     0.008558
      dyz     :     0.011986
      dx2y2   :     0.011335
      dxy     :     0.005667
  1 H s       :     0.919810  s :     0.919810
      pz      :     0.016375  p :     0.070564
      px      :     0.014926
      py      :     0.039264
  2 H s       :     0.919601  s :     0.919601
      pz      :     0.016358  p :     0.070554
      px      :     0.035386
      py      :     0.018809
  3 C s       :     2.843182  s :     2.843182
      pz      :     1.031866  p :     3.157343
      px      :     1.059515
      py      :     1.065962
      dz2     :     0.020159  d :     0.073660
      dxz     :     0.014450
      dyz     :     0.014037
      dx2y2   :     0.012475
      dxy     :     0.012539
  4 H s       :     0.910484  s :     0.910484
      pz      :     0.015812  p :     0.064392
      px      :     0.030362
      py      :     0.018218
  5 H s       :     0.910697  s :     0.910697
      pz      :     0.015824  p :     0.064436
      px      :     0.012328
      py      :     0.036284
  6 H s       :     0.900172  s :     0.900172
      pz      :     0.017244  p :     0.066084
      px      :     0.030248
      py      :     0.018592

SPIN
  0 C s       :     0.096998  s :     0.096998
      pz      :     0.099523  p :     0.837736
      px      :     0.544274
      py      :     0.193938
      dz2     :    -0.001460  d :    -0.003263
      dxz     :    -0.000037
      dyz     :    -0.000085
      dx2y2   :    -0.001270
      dxy     :    -0.000411
  1 H s       :    -0.011219  s :    -0.011219
      pz      :     0.002947  p :     0.016638
      px      :     0.010669
      py      :     0.003021
  2 H s       :    -0.011129  s :    -0.011129
      pz      :     0.002937  p :     0.016639
      px      :     0.007765
      py      :     0.005936
  3 C s       :    -0.002785  s :    -0.002785
      pz      :    -0.008887  p :    -0.012796
      px      :    -0.002009
      py      :    -0.001900
      dz2     :     0.000623  d :     0.012589
      dxz     :     0.007546
      dyz     :     0.002638
      dx2y2   :     0.000495
      dxy     :     0.001288
  4 H s       :     0.007266  s :     0.007266
      pz      :    -0.000358  p :    -0.000479
      px      :    -0.000121
      py      :     0.000000
  5 H s       :     0.007251  s :     0.007251
      pz      :    -0.000360  p :    -0.000484
      px      :     0.000017
      py      :    -0.000141
  6 H s       :     0.047452  s :     0.047452
      pz      :     0.000255  p :    -0.000413
      px      :    -0.000503
      py      :    -0.000165


                      *****************************
                      * MAYER POPULATION ANALYSIS *
                      *****************************

  NA   - Mulliken gross atomic population
  ZA   - Total nuclear charge
  QA   - Mulliken gross atomic charge
  VA   - Mayer's total valence
  BVA  - Mayer's bonded valence
  FA   - Mayer's free valence

  ATOM       NA         ZA         QA         VA         BVA        FA
  0 C      6.0748     6.0000    -0.0748     3.9711     3.1101     0.8610
  1 H      0.9797     1.0000     0.0203     0.9772     0.9757     0.0015
  2 H      0.9790     1.0000     0.0210     0.9772     0.9757     0.0015
  3 C      6.0354     6.0000    -0.0354     4.0228     4.0202     0.0025
  4 H      0.9777     1.0000     0.0223     0.9833     0.9833     0.0001
  5 H      0.9788     1.0000     0.0212     0.9831     0.9831     0.0001
  6 H      0.9747     1.0000     0.0253     0.9836     0.9804     0.0032

  Mayer bond orders larger than 0.1
B(  0-C ,  1-H ) :   0.9757 B(  0-C ,  2-H ) :   0.9752 B(  0-C ,  3-C ) :   1.1158 
B(  3-C ,  4-H ) :   0.9763 B(  3-C ,  5-H ) :   0.9759 B(  3-C ,  6-H ) :   0.9512 


-------
TIMINGS
-------

Total SCF time: 0 days 0 hours 0 min 6 sec 

Total time                  ....       6.202 sec
Sum of individual times     ....       5.406 sec  ( 87.2%)

Fock matrix formation       ....       4.145 sec  ( 66.8%)
  XC integration            ....       1.237 sec  ( 29.8% of F)
    Basis function eval.    ....       0.344 sec  ( 27.8% of XC)
    Density eval.           ....       0.236 sec  ( 19.1% of XC)
    XC-Functional eval.     ....       0.267 sec  ( 21.6% of XC)
    XC-Potential eval.      ....       0.298 sec  ( 24.1% of XC)
Diagonalization             ....       0.015 sec  (  0.2%)
Density matrix formation    ....       0.001 sec  (  0.0%)
Population analysis         ....       0.017 sec  (  0.3%)
Initial guess               ....       0.375 sec  (  6.0%)
Orbital Transformation      ....       0.000 sec  (  0.0%)
Orbital Orthonormalization  ....       0.000 sec  (  0.0%)
DIIS solution               ....       0.097 sec  (  1.6%)
Grid generation             ....       0.757 sec  ( 12.2%)

-------------------------   --------------------
FINAL SINGLE POINT ENERGY       -79.028377981897
-------------------------   --------------------

------------------------------------------------------------------------------
                         ORCA SCF GRADIENT CALCULATION
------------------------------------------------------------------------------

Gradient of the Kohn-Sham DFT energy:
Kohn-Sham wavefunction type      ... UKS
Hartree-Fock exchange scaling    ...    0.200
Number of operators              ...    2
Number of atoms                  ...    7
Basis set dimensions             ...   53
Integral neglect threshold       ... 2.5e-11
Integral primitive cutoff        ... 2.5e-12

Nuclear repulsion gradient       ... done
One Electron Gradient            ... done
Pre-screening matrix             ... done
Starting the two electron gradient:
Two electron gradient done
Exchange-correlation gradient    ... done

------------------
CARTESIAN GRADIENT
------------------

   1   C   :   -0.030639522   -0.017784766   -0.029820308
   2   H   :    0.013525488   -0.001954514    0.008262864
   3   H   :    0.004949690    0.012698025    0.008269625
   4   C   :    0.016945175    0.010056503    0.019988998
   5   H   :    0.003460047   -0.003229335   -0.003006074
   6   H   :   -0.001060650    0.004376157   -0.002916507
   7   H   :   -0.007180229   -0.004162070   -0.000778599

Difference to translation invariance:
           :    0.0000000000    0.0000000000    0.0000000000

Norm of the cartesian gradient     ...    0.0597580501
RMS gradient                       ...    0.0130402756
MAX gradient                       ...    0.0306395217

-------
TIMINGS
-------

Total SCF gradient time            ...        2.601 sec

One electron gradient       ....       0.088 sec  (  3.4%)
Prescreening matrices       ....       0.059 sec  (  2.3%)
Two electron gradient       ....       0.444 sec  ( 17.1%)
XC gradient                 ....       1.570 sec  ( 60.4%)
------------------------------------------------------------------------------
                         ORCA GEOMETRY RELAXATION STEP
------------------------------------------------------------------------------

Reading the OPT-File                    .... done
Getting information on internals        .... done
Copying old internal coords+grads       .... done
Making the new internal coordinates     .... (new redundants).... done
Validating the new internal coordinates .... (new redundants).... done
Calculating the B-matrix                .... done
Calculating the G,G- and P matrices     .... done
Transforming gradient to internals      .... done
Projecting the internal gradient        .... done
Number of atoms                         ....   7
Number of internal coordinates          ....  21
Current Energy                          ....   -79.028377982 Eh
Current gradient norm                   ....     0.059758050 Eh/bohr
Maximum allowed component of the step   ....  0.300
Current trust radius                    ....  0.300
Evaluating the initial hessian          ....  (Almloef) done
Projecting the Hessian                  .... done
Forming the augmented Hessian           .... done
Diagonalizing the augmented Hessian     .... done
Last element of RFO vector              ....  0.955223284
Lowest eigenvalues of augmented Hessian:
 -0.009176270  0.010437732  0.077989956  0.130165675  0.130242424
Length of the computed step             ....  0.309755765
Warning: the length of the step is outside the trust region - taking restricted step instead
The input lambda is                     ....    -0.009176
   iter:   1  x=   -0.011778  g=    2.286062 f(x)=     0.005949
   iter:   2  x=   -0.011911  g=    2.079306 f(x)=     0.000275
   iter:   3  x=   -0.011911  g=    2.069492 f(x)=     0.000001
   iter:   4  x=   -0.011911  g=    2.069469 f(x)=     0.000000
   iter:   5  x=   -0.011911  g=    2.069469 f(x)=     0.000000
The output lambda is                    ....    -0.011911 (5 iterations)
The final length of the internal step   ....  0.300000000
Converting the step to cartesian space:
 Initial RMS(Int)=    0.0654653671
Transforming coordinates:
 Iter   0:  RMS(Cart)=    0.0466879384 RMS(Int)=    1.3503428338
 Iter   1:  RMS(Cart)=    0.0039350330 RMS(Int)=    0.0037740248
 Iter   2:  RMS(Cart)=    0.0001805080 RMS(Int)=    0.0003092413
 Iter   3:  RMS(Cart)=    0.0000330728 RMS(Int)=    0.0000317251
 Iter   4:  RMS(Cart)=    0.0000017143 RMS(Int)=    0.0000026356
 Iter   5:  RMS(Cart)=    0.0000002711 RMS(Int)=    0.0000002733
 Iter   6:  RMS(Cart)=    0.0000000186 RMS(Int)=    0.0000000235
done
Storing new coordinates                 .... done

                                .--------------------.
          ----------------------|Geometry convergence|-------------------------
          Item                value                   Tolerance       Converged
          ---------------------------------------------------------------------
          RMS gradient        0.0077060761            0.0001000000      NO
          MAX gradient        0.0139799078            0.0003000000      NO
          RMS step            0.0654653671            0.0020000000      NO
          MAX step            0.1148869453            0.0040000000      NO
          ........................................................
          Max(Bonds)      0.0182      Max(Angles)    4.66
          Max(Dihed)        6.58      Max(Improp)    0.00
          ---------------------------------------------------------------------

The optimization has not yet converged - more geometry cycles are needed


    ---------------------------------------------------------------------------
                         Redundant Internal Coordinates
                            (Angstroem and degrees)

        Definition                    Value    dE/dq     Step     New-Value
    ----------------------------------------------------------------------------
     1. B(H   1,C   0)                1.0951 -0.004833  0.0070    1.1021   
     2. B(H   2,C   0)                1.0951 -0.004929  0.0071    1.1022   
     3. B(C   3,C   0)                1.5300  0.013284 -0.0182    1.5118   
     4. B(H   4,C   3)                1.0951 -0.005389  0.0078    1.1029   
     5. B(H   5,C   3)                1.0951 -0.005136  0.0074    1.1025   
     6. B(H   6,C   3)                1.0951 -0.008016  0.0116    1.1067   
     7. A(H   2,C   0,C   3)          111.38 -0.013925    4.65    116.04   
     8. A(H   1,C   0,C   3)          111.38 -0.013980    4.66    116.05   
     9. A(H   1,C   0,H   2)          107.49  0.000877    4.58    112.07   
    10. A(H   4,C   3,H   5)          107.49  0.000389    0.27    107.77   
    11. A(C   0,C   3,H   5)          111.38 -0.002241    0.47    111.85   
    12. A(C   0,C   3,H   6)          111.38  0.004536   -0.94    110.44   
    13. A(H   5,C   3,H   6)          107.49 -0.000231   -0.13    107.36   
    14. A(H   4,C   3,H   6)          107.49 -0.000219   -0.13    107.36   
    15. A(C   0,C   3,H   4)          111.38 -0.002237    0.47    111.85   
    16. D(H   4,C   3,C   0,H   2)    180.00 -0.007620    5.55    185.55   
    17. D(H   5,C   3,C   0,H   1)    180.00  0.007647   -5.60    174.40   
    18. D(H   5,C   3,C   0,H   2)    -60.00 -0.010164    6.53    -53.47   
    19. D(H   6,C   3,C   0,H   1)    -60.00  0.008909   -6.09    -66.09   
    20. D(H   6,C   3,C   0,H   2)     60.00 -0.008901    6.04     66.04   
    21. D(H   4,C   3,C   0,H   1)     60.00  0.010190   -6.58     53.42   
    ----------------------------------------------------------------------------

         *************************************************************
         *                GEOMETRY OPTIMIZATION CYCLE   2            *
         *************************************************************
---------------------------------
CARTESIAN COORDINATES (ANGSTROEM)
---------------------------------
  C     -0.452833    0.031763   -1.767608
  H     -0.545399    1.028905   -2.227706
  H      0.364920   -0.546611   -2.227633
  C     -0.505428    0.001346   -0.257076
  H     -1.401354    0.512906    0.132734
  H     -0.510746   -1.029996    0.132572
  H      0.378530    0.511533    0.170782

----------------------------
CARTESIAN COORDINATES (A.U.)
----------------------------
  NO LB      ZA    FRAG     MASS         X           Y           Z
   0 C     6.0000    0    12.011   -0.855731    0.060023   -3.340295
   1 H     1.0000    0     1.008   -1.030655    1.944349   -4.209755
   2 H     1.0000    0     1.008    0.689599   -1.032946   -4.209617
   3 C     6.0000    0    12.011   -0.955121    0.002544   -0.485804
   4 H     1.0000    0     1.008   -2.648176    0.969251    0.250832
   5 H     1.0000    0     1.008   -0.965171   -1.946411    0.250525
   6 H     1.0000    0     1.008    0.715318    0.966657    0.322730

--------------------------------
INTERNAL COORDINATES (ANGSTROEM)
--------------------------------
 C      0   0   0     0.000000000000     0.00000000     0.00000000
 H      1   0   0     1.102066861955     0.00000000     0.00000000
 H      1   2   0     1.102207304319   111.27555703     0.00000000
 C      1   2   3     1.511752974384   115.62199759   134.52675807
 H      4   1   2     1.102872870960   111.84485356    53.20663385
 H      4   1   2     1.102506730310   111.84668698   174.19189398
 H      4   1   2     1.106677642036   110.44069296   293.70289415

---------------------------
INTERNAL COORDINATES (A.U.)
---------------------------
 C      0   0   0     0.000000000000     0.00000000     0.00000000
 H      1   0   0     2.082604550365     0.00000000     0.00000000
 H      1   2   0     2.082869947971   111.27555703     0.00000000
 C      1   2   3     2.856799103726   115.62199759   134.52675807
 H      4   1   2     2.084127686646   111.84485356    53.20663385
 H      4   1   2     2.083435781090   111.84668698   174.19189398
 H      4   1   2     2.091317661981   110.44069296   293.70289415


Diagonalization of the overlap matrix:
Smallest eigenvalue                        ... 5.345e-03
Time for diagonalization                   ...    0.003 sec
Threshold for overlap eigenvalues          ... 1.000e-08
Number of eigenvalues below threshold      ... 0
Time for construction of square roots      ...    0.000 sec
Total time needed                          ...    0.004 sec

-------------------
DFT GRID GENERATION
-------------------

General Integration Accuracy     IntAcc      ...  4.340
Radial Grid Type                 RadialGrid  ... Gauss-Chebyshev
Angular Grid (max. acc.)         AngularGrid ... Lebedev-110
Angular grid pruning method      GridPruning ... 3 (G Style)
Weight generation scheme         WeightScheme... Becke
Basis function cutoff            BFCut       ...    1.0000e-11
Integration weight cutoff        WCut        ...    1.0000e-14
Grids for H and He will be reduced by one unit

# of grid points (after initial pruning)     ...   7282 (   0.0 sec)
# of grid points (after weights+screening)   ...   7047 (   0.0 sec)
nearest neighbour list constructed           ...    0.0 sec
Grid point re-assignment to atoms done       ...    0.0 sec
Grid point division into batches done        ...    0.0 sec
Reduced shell lists constructed in    0.0 sec

Total number of grid points                  ...     7047
Total number of batches                      ...      113
Average number of points per batch           ...       62
Average number of grid points per atom       ...     1007
Average number of shells per batch           ...    24.40 (90.38%)
Average number of basis functions per batch  ...    47.75 (90.10%)
Average number of large shells per batch     ...    22.17 (90.83%)
Average number of large basis fcns per batch ...    42.78 (89.58%)
Maximum spatial batch extension              ...  25.70, 19.02, 19.51 au
Average spatial batch extension              ...   4.79,  4.48,  4.69 au

Time for grid setup =    0.048 sec

--------------
SCF ITERATIONS
--------------
ITER       Energy         Delta-E        Max-DP      RMS-DP      [F,P]     Damp
               ***  Starting incremental Fock matrix formation  ***
  0    -79.0327690888   0.000000000000 0.00403733  0.00021136  0.0159693 0.7000
  1    -79.0332240680  -0.000454979191 0.00420655  0.00020081  0.0126603 0.7000
                               ***Turning on DIIS***
  2    -79.0335861795  -0.000362111454 0.01207666  0.00054113  0.0096890 0.0000
  3    -79.0345345296  -0.000948350137 0.00244754  0.00009669  0.0019705 0.0000
  4    -79.0345631842  -0.000028654656 0.00295709  0.00010277  0.0008482 0.0000
  5    -79.0345712565  -0.000008072218 0.00044047  0.00001913  0.0003223 0.0000
  6    -79.0345718408  -0.000000584307 0.00015598  0.00000716  0.0001365 0.0000
  7    -79.0345719248  -0.000000083978 0.00001961  0.00000130  0.0000266 0.0000
  8    -79.0345719296  -0.000000004874 0.00000570  0.00000037  0.0000045 0.0000
                 **** Energy Check signals convergence ****

               *****************************************************
               *                     SUCCESS                       *
               *           SCF CONVERGED AFTER   9 CYCLES          *
               *****************************************************

Setting up the final grid:

General Integration Accuracy     IntAcc      ...  4.670
Radial Grid Type                 RadialGrid  ... Gauss-Chebyshev
Angular Grid (max. acc.)         AngularGrid ... Lebedev-302
Angular grid pruning method      GridPruning ... 3 (G Style)
Weight generation scheme         WeightScheme... Becke
Basis function cutoff            BFCut       ...    1.0000e-11
Integration weight cutoff        WCut        ...    1.0000e-14
Grids for H and He will be reduced by one unit

# of grid points (after initial pruning)     ...  29394 (   0.0 sec)
# of grid points (after weights+screening)   ...  28223 (   0.0 sec)
nearest neighbour list constructed           ...    0.0 sec
Grid point re-assignment to atoms done       ...    0.0 sec
Grid point division into batches done        ...    0.1 sec
Reduced shell lists constructed in    0.2 sec

Total number of grid points                  ...    28223
Total number of batches                      ...      443
Average number of points per batch           ...       63
Average number of grid points per atom       ...     4032
Average number of shells per batch           ...    22.66 (83.93%)
Average number of basis functions per batch  ...    44.28 (83.54%)
Average number of large shells per batch     ...    20.13 (88.84%)
Average number of large basis fcns per batch ...    38.81 (87.65%)
Maximum spatial batch extension              ...  20.11, 18.25, 18.18 au
Average spatial batch extension              ...   3.04,  3.06,  3.07 au

Final grid set up in    0.2 sec
Final integration                            ... done (   0.3 sec)
Change in XC energy                          ...    -0.000330223
Integrated number of electrons               ...    17.000021626
Previous integrated no of electrons          ...    16.998292752
Total Energy       :          -79.03490215 Eh           -2150.64902 eV
  Last Energy change         ...   -3.9311e-10  Tolerance :   1.0000e-08
  Last MAX-Density change    ...    2.0242e-06  Tolerance :   1.0000e-07
             **** THE GBW FILE WAS UPDATED (orca.gbw) ****
             **** DENSITY FILE WAS UPDATED (orca.scfp.tmp) ****
             **** ENERGY FILE WAS UPDATED (orca.en.tmp) ****
----------------------
UHF SPIN CONTAMINATION
----------------------

Warning: in a DFT calculation there is little theoretical justification to 
         calculate <S**2> as in Hartree-Fock theory. We will do it anyways
         but you should keep in mind that the values have only limited relevance

Expectation value of <S**2>     :     0.753059
Ideal value S*(S+1) for S=0.5   :     0.750000
Deviation                       :     0.003059

Total SCF time: 0 days 0 hours 0 min 3 sec 

-------------------------   --------------------
FINAL SINGLE POINT ENERGY       -79.034902153196
-------------------------   --------------------

------------------------------------------------------------------------------
                         ORCA SCF GRADIENT CALCULATION
------------------------------------------------------------------------------

Gradient of the Kohn-Sham DFT energy:
Kohn-Sham wavefunction type      ... UKS
Hartree-Fock exchange scaling    ...    0.200
Number of operators              ...    2
Number of atoms                  ...    7
Basis set dimensions             ...   53
Integral neglect threshold       ... 2.5e-11
Integral primitive cutoff        ... 2.5e-12

Nuclear repulsion gradient       ... done
One Electron Gradient            ... done
Pre-screening matrix             ... done
Starting the two electron gradient:
Two electron gradient done
Exchange-correlation gradient    ... done

------------------
CARTESIAN GRADIENT
------------------

   1   C   :   -0.019721538   -0.011424088   -0.012478113
   2   H   :    0.007575983    0.003504875    0.001825150
   3   H   :    0.006760196    0.004810395    0.001821413
   4   C   :    0.008041786    0.004671792    0.011142028
   5   H   :   -0.000570578   -0.000714438   -0.000593802
   6   H   :   -0.000907945   -0.000153283   -0.000592365
   7   H   :   -0.001177904   -0.000695253   -0.001124310

Difference to translation invariance:
           :    0.0000000000    0.0000000000    0.0000000000

Norm of the cartesian gradient     ...    0.0321944669
RMS gradient                       ...    0.0070254087
MAX gradient                       ...    0.0197215383

-------
TIMINGS
-------

Total SCF gradient time            ...        1.705 sec

One electron gradient       ....       0.010 sec  (  0.6%)
Prescreening matrices       ....       0.014 sec  (  0.8%)
Two electron gradient       ....       0.377 sec  ( 22.1%)
XC gradient                 ....       1.170 sec  ( 68.6%)
------------------------------------------------------------------------------
                         ORCA GEOMETRY RELAXATION STEP
------------------------------------------------------------------------------

Reading the OPT-File                    .... done
Getting information on internals        .... done
Copying old internal coords+grads       .... done
Making the new internal coordinates     .... (new redundants).... done
Validating the new internal coordinates .... (new redundants).... done
Calculating the B-matrix                .... done
Calculating the G,G- and P matrices     .... done
Transforming gradient to internals      .... done
Projecting the internal gradient        .... done
Number of atoms                         ....   7
Number of internal coordinates          ....  21
Current Energy                          ....   -79.034902153 Eh
Current gradient norm                   ....     0.032194467 Eh/bohr
Maximum allowed component of the step   ....  0.300
Current trust radius                    ....  0.300
Updating the Hessian (BFGS)             .... done
Forming the augmented Hessian           .... done
Diagonalizing the augmented Hessian     .... done
Last element of RFO vector              ....  0.956930578
Lowest eigenvalues of augmented Hessian:
 -0.004484919  0.010437726  0.045667188  0.129852011  0.130165675
Length of the computed step             ....  0.303383391
Warning: the length of the step is outside the trust region - taking restricted step instead
The input lambda is                     ....    -0.004485
   iter:   1  x=   -0.004999  g=    3.969499 f(x)=     0.002041
   iter:   2  x=   -0.005008  g=    3.839363 f(x)=     0.000034
   iter:   3  x=   -0.005008  g=    3.837191 f(x)=     0.000000
   iter:   4  x=   -0.005008  g=    3.837190 f(x)=     0.000000
The output lambda is                    ....    -0.005008 (4 iterations)
The final length of the internal step   ....  0.300000000
Converting the step to cartesian space:
 Initial RMS(Int)=    0.0654653671
Transforming coordinates:
 Iter   0:  RMS(Cart)=    0.0409606810 RMS(Int)=    0.0668625501
 Iter   1:  RMS(Cart)=    0.0037514838 RMS(Int)=    0.0036215217
 Iter   2:  RMS(Cart)=    0.0001773905 RMS(Int)=    0.0002435952
 Iter   3:  RMS(Cart)=    0.0000160221 RMS(Int)=    0.0000180147
 Iter   4:  RMS(Cart)=    0.0000011535 RMS(Int)=    0.0000013374
 Iter   5:  RMS(Cart)=    0.0000000911 RMS(Int)=    0.0000001163
done
Storing new coordinates                 .... done

                                .--------------------.
          ----------------------|Geometry convergence|-------------------------
          Item                value                   Tolerance       Converged
          ---------------------------------------------------------------------
          Energy change      -0.0065241713            0.0000050000      NO
          RMS gradient        0.0037107683            0.0001000000      NO
          MAX gradient        0.0085720196            0.0003000000      NO
          RMS step            0.0654653671            0.0020000000      NO
          MAX step            0.1179042420            0.0040000000      NO
          ........................................................
          Max(Bonds)      0.0232      Max(Angles)    4.35
          Max(Dihed)        6.76      Max(Improp)    0.00
          ---------------------------------------------------------------------

The optimization has not yet converged - more geometry cycles are needed


    ---------------------------------------------------------------------------
                         Redundant Internal Coordinates
                            (Angstroem and degrees)

        Definition                    Value    dE/dq     Step     New-Value
    ----------------------------------------------------------------------------
     1. B(H   1,C   0)                1.1021  0.001771 -0.0045    1.0976   
     2. B(H   2,C   0)                1.1022  0.001737 -0.0044    1.0978   
     3. B(C   3,C   0)                1.5118  0.008572 -0.0232    1.4885   
     4. B(H   4,C   3)                1.1029 -0.000076  0.0006    1.1035   
     5. B(H   5,C   3)                1.1025 -0.000061  0.0006    1.1031   
     6. B(H   6,C   3)                1.1067 -0.001699  0.0053    1.1120   
     7. A(H   2,C   0,C   3)          115.61 -0.004910    3.83    119.44   
     8. A(H   1,C   0,C   3)          115.62 -0.004934    3.84    119.46   
     9. A(H   1,C   0,H   2)          111.28  0.000388    4.35    115.63   
    10. A(H   4,C   3,H   5)          107.76 -0.000017    0.30    108.06   
    11. A(C   0,C   3,H   5)          111.85 -0.000754    0.34    112.19   
    12. A(C   0,C   3,H   6)          110.44 -0.000109   -0.13    110.31   
    13. A(H   5,C   3,H   6)          107.37  0.000879   -0.45    106.92   
    14. A(H   4,C   3,H   6)          107.36  0.000886   -0.45    106.91   
    15. A(C   0,C   3,H   4)          111.84 -0.000756    0.34    112.19   
    16. D(H   4,C   3,C   0,H   2)   -174.25 -0.004516    5.85   -168.39   
    17. D(H   5,C   3,C   0,H   1)    174.19  0.004530   -5.90    168.29   
    18. D(H   5,C   3,C   0,H   2)    -53.26 -0.005607    6.71    -46.56   
    19. D(H   6,C   3,C   0,H   1)    -66.30  0.005072   -6.33    -72.62   
    20. D(H   6,C   3,C   0,H   2)     66.25 -0.005065    6.28     72.53   
    21. D(H   4,C   3,C   0,H   1)     53.21  0.005621   -6.76     46.45   
    ----------------------------------------------------------------------------

         *************************************************************
         *                GEOMETRY OPTIMIZATION CYCLE   3            *
         *************************************************************
---------------------------------
CARTESIAN COORDINATES (ANGSTROEM)
---------------------------------
  C     -0.399562    0.062546   -1.742753
  H     -0.580730    1.022556   -2.243019
  H      0.342206   -0.573788   -2.242853
  C     -0.498907    0.005090   -0.258660
  H     -1.401841    0.515149    0.118514
  H     -0.509346   -1.031535    0.118257
  H      0.375869    0.509828    0.206578

----------------------------
CARTESIAN COORDINATES (A.U.)
----------------------------
  NO LB      ZA    FRAG     MASS         X           Y           Z
   0 C     6.0000    0    12.011   -0.755062    0.118194   -3.293326
   1 H     1.0000    0     1.008   -1.097421    1.932351   -4.238691
   2 H     1.0000    0     1.008    0.646676   -1.084303   -4.238378
   3 C     6.0000    0    12.011   -0.942799    0.009619   -0.488797
   4 H     1.0000    0     1.008   -2.649096    0.973491    0.223959
   5 H     1.0000    0     1.008   -0.962524   -1.949320    0.223474
   6 H     1.0000    0     1.008    0.710289    0.963435    0.390376

--------------------------------
INTERNAL COORDINATES (ANGSTROEM)
--------------------------------
 C      0   0   0     0.000000000000     0.00000000     0.00000000
 H      1   0   0     1.097591917275     0.00000000     0.00000000
 H      1   2   0     1.097834399575   114.25956627     0.00000000
 C      1   2   3     1.488523369682   118.50090538   147.13267188
 H      4   1   2     1.103499075904   112.18206315    46.15440572
 H      4   1   2     1.103072286948   112.18425388   167.99890346
 H      4   1   2     1.111953566597   110.31160444   287.08333844

---------------------------
INTERNAL COORDINATES (A.U.)
---------------------------
 C      0   0   0     0.000000000000     0.00000000     0.00000000
 H      1   0   0     2.074148130455     0.00000000     0.00000000
 H      1   2   0     2.074606355595   114.25956627     0.00000000
 C      1   2   3     2.812901512640   118.50090538   147.13267188
 H      4   1   2     2.085311042495   112.18206315    46.15440572
 H      4   1   2     2.084504528251   112.18425388   167.99890346
 H      4   1   2     2.101287714506   110.31160444   287.08333844


Diagonalization of the overlap matrix:
Smallest eigenvalue                        ... 5.169e-03
Time for diagonalization                   ...    0.003 sec
Threshold for overlap eigenvalues          ... 1.000e-08
Number of eigenvalues below threshold      ... 0
Time for construction of square roots      ...    0.000 sec
Total time needed                          ...    0.004 sec

-------------------
DFT GRID GENERATION
-------------------

General Integration Accuracy     IntAcc      ...  4.340
Radial Grid Type                 RadialGrid  ... Gauss-Chebyshev
Angular Grid (max. acc.)         AngularGrid ... Lebedev-110
Angular grid pruning method      GridPruning ... 3 (G Style)
Weight generation scheme         WeightScheme... Becke
Basis function cutoff            BFCut       ...    1.0000e-11
Integration weight cutoff        WCut        ...    1.0000e-14
Grids for H and He will be reduced by one unit

# of grid points (after initial pruning)     ...   7282 (   0.0 sec)
# of grid points (after weights+screening)   ...   7047 (   0.0 sec)
nearest neighbour list constructed           ...    0.0 sec
Grid point re-assignment to atoms done       ...    0.0 sec
Grid point division into batches done        ...    0.0 sec
Reduced shell lists constructed in    0.0 sec

Total number of grid points                  ...     7047
Total number of batches                      ...      113
Average number of points per batch           ...       62
Average number of grid points per atom       ...     1007
Average number of shells per batch           ...    24.42 (90.45%)
Average number of basis functions per batch  ...    47.84 (90.27%)
Average number of large shells per batch     ...    22.25 (91.09%)
Average number of large basis fcns per batch ...    43.00 (89.88%)
Maximum spatial batch extension              ...  25.79, 18.96, 20.05 au
Average spatial batch extension              ...   4.66,  4.42,  4.78 au

Time for grid setup =    0.048 sec

--------------
SCF ITERATIONS
--------------
ITER       Energy         Delta-E        Max-DP      RMS-DP      [F,P]     Damp
               ***  Starting incremental Fock matrix formation  ***
  0    -79.0360032895   0.000000000000 0.00379820  0.00018880  0.0157795 0.7000
  1    -79.0364383931  -0.000435103592 0.00387261  0.00018729  0.0126315 0.7000
                               ***Turning on DIIS***
  2    -79.0367883164  -0.000349923301 0.01193438  0.00052242  0.0097875 0.0000
  3    -79.0377165940  -0.000928277586 0.00290762  0.00011015  0.0022975 0.0000
  4    -79.0377502536  -0.000033659599 0.00384207  0.00012449  0.0008975 0.0000
  5    -79.0377600497  -0.000009796099 0.00083275  0.00002990  0.0004184 0.0000
  6    -79.0377612166  -0.000001166857 0.00016538  0.00000689  0.0000613 0.0000
  7    -79.0377612762  -0.000000059602 0.00002144  0.00000106  0.0000236 0.0000
                 **** Energy Check signals convergence ****

               *****************************************************
               *                     SUCCESS                       *
               *           SCF CONVERGED AFTER   8 CYCLES          *
               *****************************************************

Setting up the final grid:

General Integration Accuracy     IntAcc      ...  4.670
Radial Grid Type                 RadialGrid  ... Gauss-Chebyshev
Angular Grid (max. acc.)         AngularGrid ... Lebedev-302
Angular grid pruning method      GridPruning ... 3 (G Style)
Weight generation scheme         WeightScheme... Becke
Basis function cutoff            BFCut       ...    1.0000e-11
Integration weight cutoff        WCut        ...    1.0000e-14
Grids for H and He will be reduced by one unit

# of grid points (after initial pruning)     ...  29394 (   0.0 sec)
# of grid points (after weights+screening)   ...  28236 (   0.0 sec)
nearest neighbour list constructed           ...    0.0 sec
Grid point re-assignment to atoms done       ...    0.0 sec
Grid point division into batches done        ...    0.1 sec
Reduced shell lists constructed in    0.2 sec

Total number of grid points                  ...    28236
Total number of batches                      ...      444
Average number of points per batch           ...       63
Average number of grid points per atom       ...     4034
Average number of shells per batch           ...    22.67 (83.97%)
Average number of basis functions per batch  ...    44.26 (83.51%)
Average number of large shells per batch     ...    20.10 (88.66%)
Average number of large basis fcns per batch ...    38.69 (87.41%)
Maximum spatial batch extension              ...  19.97, 18.18, 18.11 au
Average spatial batch extension              ...   3.04,  3.06,  3.12 au

Final grid set up in    0.2 sec
Final integration                            ... done (   0.3 sec)
Change in XC energy                          ...    -0.000171387
Integrated number of electrons               ...    17.000028581
Previous integrated no of electrons          ...    16.999168575
Total Energy       :          -79.03793267 Eh           -2150.73149 eV
  Last Energy change         ...   -3.2016e-09  Tolerance :   1.0000e-08
  Last MAX-Density change    ...    6.8994e-06  Tolerance :   1.0000e-07
             **** THE GBW FILE WAS UPDATED (orca.gbw) ****
             **** DENSITY FILE WAS UPDATED (orca.scfp.tmp) ****
             **** ENERGY FILE WAS UPDATED (orca.en.tmp) ****
----------------------
UHF SPIN CONTAMINATION
----------------------

Warning: in a DFT calculation there is little theoretical justification to 
         calculate <S**2> as in Hartree-Fock theory. We will do it anyways
         but you should keep in mind that the values have only limited relevance

Expectation value of <S**2>     :     0.753427
Ideal value S*(S+1) for S=0.5   :     0.750000
Deviation                       :     0.003427

Total SCF time: 0 days 0 hours 0 min 3 sec 

-------------------------   --------------------
FINAL SINGLE POINT ENERGY       -79.037932666365
-------------------------   --------------------

------------------------------------------------------------------------------
                         ORCA SCF GRADIENT CALCULATION
------------------------------------------------------------------------------

Gradient of the Kohn-Sham DFT energy:
Kohn-Sham wavefunction type      ... UKS
Hartree-Fock exchange scaling    ...    0.200
Number of operators              ...    2
Number of atoms                  ...    7
Basis set dimensions             ...   53
Integral neglect threshold       ... 2.5e-11
Integral primitive cutoff        ... 2.5e-12

Nuclear repulsion gradient       ... done
One Electron Gradient            ... done
Pre-screening matrix             ... done
Starting the two electron gradient:
Two electron gradient done
Exchange-correlation gradient    ... done

------------------
CARTESIAN GRADIENT
------------------

   1   C   :   -0.009164916   -0.005263942    0.000273492
   2   H   :    0.003758759    0.001650918    0.000668441
   3   H   :    0.003316513    0.002419988    0.000662464
   4   C   :    0.002367255    0.001341691    0.000788195
   5   H   :   -0.000597629   -0.000264575   -0.000387786
   6   H   :   -0.000532257   -0.000353118   -0.000404181
   7   H   :    0.000852276    0.000469038   -0.001600625

Difference to translation invariance:
           :   -0.0000000000    0.0000000000    0.0000000000

Norm of the cartesian gradient     ...    0.0126117870
RMS gradient                       ...    0.0027521176
MAX gradient                       ...    0.0091649156

-------
TIMINGS
-------

Total SCF gradient time            ...        1.731 sec

One electron gradient       ....       0.010 sec  (  0.6%)
Prescreening matrices       ....       0.014 sec  (  0.8%)
Two electron gradient       ....       0.403 sec  ( 23.3%)
XC gradient                 ....       1.169 sec  ( 67.5%)
------------------------------------------------------------------------------
                         ORCA GEOMETRY RELAXATION STEP
------------------------------------------------------------------------------

Reading the OPT-File                    .... done
Getting information on internals        .... done
Copying old internal coords+grads       .... done
Making the new internal coordinates     .... (new redundants).... done
Validating the new internal coordinates .... (new redundants).... done
Calculating the B-matrix                .... done
Calculating the G,G- and P matrices     .... done
Transforming gradient to internals      .... done
Projecting the internal gradient        .... done
Number of atoms                         ....   7
Number of internal coordinates          ....  21
Current Energy                          ....   -79.037932666 Eh
Current gradient norm                   ....     0.012611787 Eh/bohr
Maximum allowed component of the step   ....  0.300
Current trust radius                    ....  0.300
Updating the Hessian (BFGS)             .... done
Forming the augmented Hessian           .... done
Diagonalizing the augmented Hessian     .... done
Last element of RFO vector              ....  0.974790487
Lowest eigenvalues of augmented Hessian:
 -0.001466949  0.010437800  0.027166213  0.129968456  0.130165784
Length of the computed step             ....  0.228892445
The final length of the internal step   ....  0.228892445
Converting the step to cartesian space:
 Initial RMS(Int)=    0.0499484263
Transforming coordinates:
 Iter   0:  RMS(Cart)=    0.0323855227 RMS(Int)=    0.0504737324
 Iter   1:  RMS(Cart)=    0.0019554026 RMS(Int)=    0.0018957686
 Iter   2:  RMS(Cart)=    0.0000632008 RMS(Int)=    0.0000827949
 Iter   3:  RMS(Cart)=    0.0000033198 RMS(Int)=    0.0000033854
 Iter   4:  RMS(Cart)=    0.0000001360 RMS(Int)=    0.0000001956
 Iter   5:  RMS(Cart)=    0.0000000117 RMS(Int)=    0.0000000121
done
Storing new coordinates                 .... done

                                .--------------------.
          ----------------------|Geometry convergence|-------------------------
          Item                value                   Tolerance       Converged
          ---------------------------------------------------------------------
          Energy change      -0.0030305132            0.0000050000      NO
          RMS gradient        0.0016108387            0.0001000000      NO
          MAX gradient        0.0025169289            0.0003000000      NO
          RMS step            0.0499484263            0.0020000000      NO
          MAX step            0.0922411429            0.0040000000      NO
          ........................................................
          Max(Bonds)      0.0046      Max(Angles)    2.63
          Max(Dihed)        5.29      Max(Improp)    0.00
          ---------------------------------------------------------------------

The optimization has not yet converged - more geometry cycles are needed


    ---------------------------------------------------------------------------
                         Redundant Internal Coordinates
                            (Angstroem and degrees)

        Definition                    Value    dE/dq     Step     New-Value
    ----------------------------------------------------------------------------
     1. B(H   1,C   0)                1.0976  0.000517 -0.0027    1.0949   
     2. B(H   2,C   0)                1.0978  0.000540 -0.0027    1.0951   
     3. B(C   3,C   0)                1.4885 -0.001786 -0.0046    1.4840   
     4. B(H   4,C   3)                1.1035  0.000236 -0.0002    1.1033   
     5. B(H   5,C   3)                1.1031  0.000199 -0.0001    1.1029   
     6. B(H   6,C   3)                1.1120  0.000211  0.0016    1.1136   
     7. A(H   2,C   0,C   3)          118.48 -0.001424    2.12    120.60   
     8. A(H   1,C   0,C   3)          118.50 -0.001401    2.11    120.61   
     9. A(H   1,C   0,H   2)          114.26  0.000010    2.63    116.89   
    10. A(H   4,C   3,H   5)          108.05  0.000131    0.08    108.13   
    11. A(C   0,C   3,H   5)          112.18 -0.000171    0.20    112.38   
    12. A(C   0,C   3,H   6)          110.31 -0.002404    0.65    110.96   
    13. A(H   5,C   3,H   6)          106.92  0.001396   -0.60    106.32   
    14. A(H   4,C   3,H   6)          106.91  0.001407   -0.61    106.31   
    15. A(C   0,C   3,H   4)          112.18 -0.000170    0.19    112.38   
    16. D(H   4,C   3,C   0,H   2)   -168.10 -0.002438    4.89   -163.21   
    17. D(H   5,C   3,C   0,H   1)    168.00  0.002438   -4.86    163.14   
    18. D(H   5,C   3,C   0,H   2)    -46.26 -0.002516    5.29    -40.97   
    19. D(H   6,C   3,C   0,H   1)    -72.92  0.002470   -5.05    -77.96   
    20. D(H   6,C   3,C   0,H   2)     72.83 -0.002484    5.10     77.92   
    21. D(H   4,C   3,C   0,H   1)     46.15  0.002517   -5.25     40.90   
    ----------------------------------------------------------------------------

         *************************************************************
         *                GEOMETRY OPTIMIZATION CYCLE   4            *
         *************************************************************
---------------------------------
CARTESIAN COORDINATES (ANGSTROEM)
---------------------------------
  C     -0.359730    0.085580   -1.734318
  H     -0.607090    1.015201   -2.257159
  H      0.322323   -0.593190   -2.257115
  C     -0.491203    0.009530   -0.258158
  H     -1.399473    0.516803    0.109286
  H     -0.506520   -1.030382    0.109046
  H      0.369382    0.506304    0.244483

----------------------------
CARTESIAN COORDINATES (A.U.)
----------------------------
  NO LB      ZA    FRAG     MASS         X           Y           Z
   0 C     6.0000    0    12.011   -0.679791    0.161722   -3.277386
   1 H     1.0000    0     1.008   -1.147233    1.918451   -4.265412
   2 H     1.0000    0     1.008    0.609102   -1.120967   -4.265330
   3 C     6.0000    0    12.011   -0.928239    0.018009   -0.487849
   4 H     1.0000    0     1.008   -2.644620    0.976615    0.206521
   5 H     1.0000    0     1.008   -0.957185   -1.947139    0.206067
   6 H     1.0000    0     1.008    0.698030    0.956777    0.462005

--------------------------------
INTERNAL COORDINATES (ANGSTROEM)
--------------------------------
 C      0   0   0     0.000000000000     0.00000000     0.00000000
 H      1   0   0     1.094872083193     0.00000000     0.00000000
 H      1   2   0     1.095098948618   116.04080399     0.00000000
 C      1   2   3     1.483952781153   119.90246182   157.03925208
 H      4   1   2     1.103310761111   112.37466206    40.76930340
 H      4   1   2     1.102946009873   112.37899345   163.00642046
 H      4   1   2     1.113570367914   110.95757624   281.90087783

---------------------------
INTERNAL COORDINATES (A.U.)
---------------------------
 C      0   0   0     0.000000000000     0.00000000     0.00000000
 H      1   0   0     2.069008388910     0.00000000     0.00000000
 H      1   2   0     2.069437102434   116.04080399     0.00000000
 C      1   2   3     2.804264352049   119.90246182   157.03925208
 H      4   1   2     2.084955179107   112.37466206    40.76930340
 H      4   1   2     2.084265899162   112.37899345   163.00642046
 H      4   1   2     2.104343026208   110.95757624   281.90087783


Diagonalization of the overlap matrix:
Smallest eigenvalue                        ... 5.171e-03
Time for diagonalization                   ...    0.003 sec
Threshold for overlap eigenvalues          ... 1.000e-08
Number of eigenvalues below threshold      ... 0
Time for construction of square roots      ...    0.000 sec
[...]
Orbital Orthonormalization  ....       0.001 sec  (  0.0%)
DIIS solution               ....       0.002 sec  (  0.1%)
Grid generation             ....       0.294 sec  ( 11.9%)

-------------------------   --------------------
FINAL SINGLE POINT ENERGY       -79.039383700593
-------------------------   --------------------

                                *** OPTIMIZATION RUN DONE ***

                            ***************************************
                            *     ORCA property calculations      *
                            ***************************************

                                    ---------------------
                                    Active property flags
                                    ---------------------
   (+) Dipole Moment


------------------------------------------------------------------------------
                       ORCA ELECTRIC PROPERTIES CALCULATION
------------------------------------------------------------------------------

Dipole Moment Calculation                       ... on
Quadrupole Moment Calculation                   ... off
Polarizability Calculation                      ... off
GBWName                                         ... orca.gbw
Electron density file                           ... orca.scfp.tmp
The origin for moment calculation is the CENTER OF MASS  = (-0.733201,  0.130602 -1.812250)

-------------
DIPOLE MOMENT
-------------
                                X             Y             Z
Electronic contribution:     -0.01434      -0.00928      -0.57389
Nuclear contribution   :      0.04470       0.02669       0.68522
                        -----------------------------------------
Total Dipole Moment    :      0.03036       0.01742       0.11133
                        -----------------------------------------
Magnitude (a.u.)       :      0.11670
Magnitude (Debye)      :      0.29663


----------------------------------------------------------------------------
                           ORCA NUMERICAL FREQUENCIES
----------------------------------------------------------------------------

Number of atoms                ... 7
Central differences            ... used
Number of displacements        ... 42
Numerical increment            ...  0.005 bohr
IR-spectrum generation         ... on
Raman-spectrum generation      ... off
Surface Crossing Hessian       ... off

The output will be reduced. Please look at the following files:
SCF program output             ... >orca.lastscf
Integral program output        ... >orca.lastint
Gradient program output        ... >orca.lastgrad
Dipole moment program output   ... >orca.lastmom


         <<<Energy and Gradient at the input geometry>>>
             <<<Displacing   1/coordinate 1 (+)>>>
             <<<Displacing   1/coordinate 1 (-)>>>
             <<<Displacing   1/coordinate 2 (+)>>>
             <<<Displacing   1/coordinate 2 (-)>>>
             <<<Displacing   1/coordinate 3 (+)>>>
             <<<Displacing   1/coordinate 3 (-)>>>
             <<<Displacing   2/coordinate 1 (+)>>>
             <<<Displacing   2/coordinate 1 (-)>>>
             <<<Displacing   2/coordinate 2 (+)>>>
             <<<Displacing   2/coordinate 2 (-)>>>
             <<<Displacing   2/coordinate 3 (+)>>>
             <<<Displacing   2/coordinate 3 (-)>>>
             <<<Displacing   3/coordinate 1 (+)>>>
             <<<Displacing   3/coordinate 1 (-)>>>
             <<<Displacing   3/coordinate 2 (+)>>>
             <<<Displacing   3/coordinate 2 (-)>>>
             <<<Displacing   3/coordinate 3 (+)>>>
             <<<Displacing   3/coordinate 3 (-)>>>
             <<<Displacing   4/coordinate 1 (+)>>>
             <<<Displacing   4/coordinate 1 (-)>>>
             <<<Displacing   4/coordinate 2 (+)>>>
             <<<Displacing   4/coordinate 2 (-)>>>
             <<<Displacing   4/coordinate 3 (+)>>>
             <<<Displacing   4/coordinate 3 (-)>>>
             <<<Displacing   5/coordinate 1 (+)>>>
             <<<Displacing   5/coordinate 1 (-)>>>
             <<<Displacing   5/coordinate 2 (+)>>>
             <<<Displacing   5/coordinate 2 (-)>>>
             <<<Displacing   5/coordinate 3 (+)>>>
             <<<Displacing   5/coordinate 3 (-)>>>
             <<<Displacing   6/coordinate 1 (+)>>>
             <<<Displacing   6/coordinate 1 (-)>>>
             <<<Displacing   6/coordinate 2 (+)>>>
             <<<Displacing   6/coordinate 2 (-)>>>
             <<<Displacing   6/coordinate 3 (+)>>>
             <<<Displacing   6/coordinate 3 (-)>>>
             <<<Displacing   7/coordinate 1 (+)>>>
             <<<Displacing   7/coordinate 1 (-)>>>
             <<<Displacing   7/coordinate 2 (+)>>>
             <<<Displacing   7/coordinate 2 (-)>>>
             <<<Displacing   7/coordinate 3 (+)>>>
             <<<Displacing   7/coordinate 3 (-)>>>

-----------------------
VIBRATIONAL FREQUENCIES
-----------------------

   0:         0.00 cm**-1
   1:         0.00 cm**-1
   2:         0.00 cm**-1
   3:         0.00 cm**-1
   4:         0.00 cm**-1
   5:         0.00 cm**-1
   6:       152.22 cm**-1
   7:       480.24 cm**-1
   8:       801.57 cm**-1
   9:       966.06 cm**-1
  10:      1074.68 cm**-1
  11:      1174.57 cm**-1
  12:      1376.99 cm**-1
  13:      1438.66 cm**-1
  14:      1449.37 cm**-1
  15:      1457.70 cm**-1
  16:      2945.41 cm**-1
  17:      3043.99 cm**-1
  18:      3096.04 cm**-1
  19:      3133.20 cm**-1
  20:      3243.00 cm**-1


------------
NORMAL MODES
------------

These modes are the cartesian displacements weighted by the diagonal matrix
M(i,i)=1/sqrt(m[i]) where m[i] is the mass of the displaced atom
Thus, these vectors are normalized but *not* orthogonal

                  0          1          2          3          4          5    
      0       0.000000   0.000000   0.000000   0.000000   0.000000   0.000000
      1       0.000000   0.000000   0.000000   0.000000   0.000000   0.000000
      2       0.000000   0.000000   0.000000   0.000000   0.000000   0.000000
      3       0.000000   0.000000   0.000000   0.000000   0.000000   0.000000
      4       0.000000   0.000000   0.000000   0.000000   0.000000   0.000000
      5       0.000000   0.000000   0.000000   0.000000   0.000000   0.000000
      6       0.000000   0.000000   0.000000   0.000000   0.000000   0.000000
      7       0.000000   0.000000   0.000000   0.000000   0.000000   0.000000
      8       0.000000   0.000000   0.000000   0.000000   0.000000   0.000000
      9       0.000000   0.000000   0.000000   0.000000   0.000000   0.000000
     10       0.000000   0.000000   0.000000   0.000000   0.000000   0.000000
     11       0.000000   0.000000   0.000000   0.000000   0.000000   0.000000
     12       0.000000   0.000000   0.000000   0.000000   0.000000   0.000000
     13       0.000000   0.000000   0.000000   0.000000   0.000000   0.000000
     14       0.000000   0.000000   0.000000   0.000000   0.000000   0.000000
     15       0.000000   0.000000   0.000000   0.000000   0.000000   0.000000
     16       0.000000   0.000000   0.000000   0.000000   0.000000   0.000000
     17       0.000000   0.000000   0.000000   0.000000   0.000000   0.000000
     18       0.000000   0.000000   0.000000   0.000000   0.000000   0.000000
     19       0.000000   0.000000   0.000000   0.000000   0.000000   0.000000
     20       0.000000   0.000000   0.000000   0.000000   0.000000   0.000000
                  6          7          8          9         10         11    
      0      -0.000495  -0.117807  -0.023947   0.077390   0.042239  -0.066269
      1      -0.003577  -0.067004   0.042535   0.043539   0.024030   0.116782
      2      -0.000397  -0.020812  -0.000074   0.030678  -0.304898  -0.000147
      3      -0.483335   0.590340   0.182467  -0.067385   0.112240   0.109368
      4      -0.252664   0.318359  -0.167100  -0.014064   0.002143  -0.088909
      5      -0.105887   0.160770  -0.460110   0.036863  -0.424332  -0.437694
      6       0.482150   0.557393   0.052080  -0.047066   0.057665   0.021719
      7       0.297727   0.333670  -0.242279  -0.047877   0.097527  -0.141621
      8       0.110384   0.154992   0.458049   0.031243  -0.428378   0.439112
      9      -0.002672   0.004746  -0.019709  -0.120519  -0.048323   0.077574
     10       0.004505   0.002575   0.033416  -0.068458  -0.027659  -0.136527
     11      -0.000012  -0.004289   0.000176  -0.036451   0.286173  -0.000562
     12       0.169647   0.050335   0.001266   0.164256  -0.015656   0.087718
     13       0.279070   0.028300  -0.211108   0.170533  -0.059303   0.184065
     14       0.040558   0.076652   0.400011   0.363553   0.436946  -0.416814
     15      -0.323158   0.062927   0.181878   0.233868  -0.058768  -0.200208
     16      -0.008591   0.029438  -0.106557   0.058731   0.016150   0.017735
     17      -0.038532   0.076268  -0.400973   0.355705   0.436671   0.428473
     18       0.192438   0.086201   0.102507   0.230230  -0.022982  -0.153305
     19      -0.326605   0.057952  -0.177969   0.129601  -0.013278   0.264015
     20      -0.001640  -0.169594   0.001802  -0.718574   0.202216  -0.004635
                 12         13         14         15         16         17    
      0      -0.000724   0.017898  -0.011206   0.006580  -0.000201  -0.000003
      1      -0.001975   0.010315   0.019992   0.001771  -0.000150   0.000138
      2      -0.021256  -0.071965  -0.007238  -0.094335   0.001431   0.001275
      3      -0.070194  -0.209338   0.011116  -0.202079   0.001105   0.002147
      4       0.074455   0.194880   0.023329   0.200979  -0.001118  -0.003148
      5       0.161000   0.379656  -0.016589   0.365678   0.003714   0.001845
      6       0.029594   0.062195  -0.013717   0.072971  -0.000101  -0.000033
      7      -0.096506  -0.279642  -0.041985  -0.274779   0.002018   0.002582
      8       0.154295   0.379468   0.076460   0.357778   0.003901   0.001081
      9       0.000280   0.039704  -0.023752  -0.036033   0.042843   0.065612
     10      -0.001076   0.023348   0.034574  -0.024899   0.025635   0.034372
     11      -0.126505   0.009781   0.000622   0.068438   0.045073  -0.024379
     12       0.228091  -0.187882  -0.259175   0.128031   0.191764  -0.583097
     13       0.036566  -0.442098  -0.173520   0.463345  -0.085489   0.328955
     14       0.471410   0.093062  -0.386976  -0.217966  -0.054406   0.213569
     15       0.122177  -0.476258   0.351042   0.415873   0.020294  -0.001479
     16       0.170435   0.055668   0.132096  -0.140002   0.201927  -0.622531
     17       0.439282   0.092945   0.381121  -0.279267  -0.052185   0.198755
     18      -0.304383   0.124922   0.327277  -0.063841  -0.721166  -0.199316
     19      -0.148590   0.070077  -0.590112   0.026047  -0.421007  -0.117065
     20       0.534686  -0.204172   0.024812   0.082364  -0.455148  -0.139949
                  18         19         20    
      0      -0.003178   0.013051  -0.049520
      1       0.005531   0.007210   0.087234
      2      -0.000001  -0.061396  -0.000023
      3       0.008728   0.224370   0.215255
      4      -0.038380  -0.572680  -0.568988
      5       0.020630   0.341960   0.354661
      6       0.029162  -0.379635   0.376101
      7      -0.028034   0.486920  -0.472194
      8      -0.021451   0.345683  -0.354261
      9       0.044775  -0.000181  -0.003039
     10      -0.081676  -0.000190   0.005338
     11       0.001212   0.003678  -0.000049
     12      -0.570470  -0.001088   0.036700
     13       0.299491  -0.000844  -0.020277
     14       0.205721  -0.001440  -0.015304
     15       0.022112  -0.001033  -0.000736
     16       0.692434   0.000734  -0.043189
     17      -0.221918  -0.001964   0.015862
     18       0.014811   0.004031  -0.001040
     19      -0.018189   0.002211   0.001588
     20       0.002591   0.003504  -0.000100


-----------
IR SPECTRUM
-----------

 Mode    freq (cm**-1)   T**2         TX         TY         TZ
-------------------------------------------------------------------
   6:       152.22    0.042162  (  0.153592   0.136140   0.006155)
   7:       480.24   49.946284  (  5.958747   3.408924   1.678944)
   8:       801.57    2.586253  (  0.786679  -1.402630  -0.004349)
   9:       966.06    0.490000  (  0.205309   0.080495   0.664356)
  10:      1074.68    0.155184  (  0.196445   0.106638  -0.324380)
  11:      1174.57    2.662315  ( -0.858605   1.386333   0.056508)
  12:      1376.99    1.036232  (  0.450242   0.355907   0.840740)
  13:      1438.66    3.235972  ( -1.427686  -0.831302  -0.711773)
  14:      1449.37    4.555876  (  1.152776  -1.796344  -0.011472)
  15:      1457.70    2.332587  (  1.223226   0.911252  -0.076983)
  16:      2945.41   24.571148  (  2.185226   1.361307   4.235892)
  17:      3043.99   21.811649  (  3.528034   1.865066  -2.426140)
  18:      3096.04   17.912848  (  1.961400  -3.749002   0.103653)
  19:      3133.20   13.181645  (  0.542412   0.308350  -3.576640)
  20:      3243.00   10.836554  ( -1.614286   2.868758  -0.029374)

The first frequency considered to be a vibration is 6
The total number of vibrations considered is 15


--------------------------
THERMOCHEMISTRY AT 298.15K
--------------------------

Temperature         ... 298.15 K
Pressure            ... 1.00 atm
Total Mass          ... 29.06 AMU

Throughout the following assumptions are being made:
  (1) The electronic state is orbitally nondegenerate
      but the spin degeneracy is treated
  (2) There are no thermally accessible electronically excited states
  (3) Hindered rotations indicated by low frequency modes are not
      treated as such but are treated as vibrations and this may
      cause some error
  (4) All equations used are the standard statistical mechanics
      equations for an ideal gas
  (5) All vibrations are strictly harmonic

freq.     152.22  E(vib)   ...       0.40 
freq.     480.24  E(vib)   ...       0.15 
freq.     801.57  E(vib)   ...       0.05 
freq.     966.06  E(vib)   ...       0.03 
freq.    1074.68  E(vib)   ...       0.02 
freq.    1174.57  E(vib)   ...       0.01 
freq.    1376.99  E(vib)   ...       0.01 
freq.    1438.66  E(vib)   ...       0.00 
freq.    1449.37  E(vib)   ...       0.00 
freq.    1457.70  E(vib)   ...       0.00 
freq.    2945.41  E(vib)   ...       0.00 
freq.    3043.99  E(vib)   ...       0.00 
freq.    3096.04  E(vib)   ...       0.00 
freq.    3133.20  E(vib)   ...       0.00 
freq.    3243.00  E(vib)   ...       0.00 

------------
INNER ENERGY
------------

The inner energy is: U= E(el) + E(ZPE) + E(vib) + E(rot) + E(trans)
    E(el)   - is the total energy from the electronic structure calculation
              = E(kin-el) + E(nuc-el) + E(el-el) + E(nuc-nuc)
    E(ZPE)  - the the zero temperature vibrational energy from the frequency calculation
    E(vib)  - the the finite temperature correction to E(ZPE) due to population
              of excited vibrational states
    E(rot)  - is the rotational thermal energy
    E(trans)- is the translational thermal energy

Summary of contributions to the inner energy U:
Electronic energy                ...    -79.03938401 Eh
Zero point energy                ...      0.05885351 Eh      36.93 kcal/mol
Thermal vibrational correction   ...      0.00107117 Eh       0.67 kcal/mol
Thermal rotational correction    ...      0.00141627 Eh       0.89 kcal/mol
Thermal translational correction ...      0.00141627 Eh       0.89 kcal/mol
-----------------------------------------------------------------------
Total thermal energy                    -78.97662680 Eh


Summary of corrections to the electronic energy:
(perhaps to be used in another calculation)
Total thermal correction                  0.00390371 Eh       2.45 kcal/mol
Non-thermal (ZPE) correction              0.05885351 Eh      36.93 kcal/mol
-----------------------------------------------------------------------
Total correction                          0.06275722 Eh      39.38 kcal/mol


--------
ENTHALPY
--------

The enthalpy is H = U + kB*T
                kB is Boltzmann's constant
Total free energy                 ...    -78.97662680 Eh 
Thermal Enthalpy correction       ...      0.00094421 Eh       0.59 kcal/mol
-----------------------------------------------------------------------
Total Enthalpy                    ...    -78.97568259 Eh


Vibrational entropy computed according to the QRRHO of S. Grimme
Chem.Eur.J. 2012 18 9955


-------
ENTROPY
-------

The entropy contributions are T*S = T*(S(el)+S(vib)+S(rot)+S(trans)
     S(el)   - electronic entropy
     S(vib)  - vibrational entropy
     S(rot)  - rotational entropy
     S(trans)- translational entropy
The entropies will be listed as mutliplied by the temperature to get
units of energy

Electronic entropy                ...      0.00065446 Eh      0.41 kcal/mol
Vibrational entropy               ...      0.00181253 Eh      1.14 kcal/mol
Rotational entropy                ...      0.00819782 Eh      5.14 kcal/mol
Translational entropy             ...      0.01712110 Eh     10.74 kcal/mol
-----------------------------------------------------------------------
Final entropy term                ...      0.02778591 Eh     17.44 kcal/mol


CAUTION: The rotational entropy is not quite correctly treated here
         because it includes a symmetry number that is not yet correctly
         implemented in ORCA!
For a nonlinear molecule the correct rotational entropy is:
    S(rot) = R*(ln(qrot/sn)+1.5)
    R    = 8.31441 J/mol/K = 1.987191683e-3 kcal/mol/K
    qrot = 3948.4592506
    sn is the rotational symmetry number. We have assumed 3 here
       if it is different for your molecule then you should correct
       the printed rotational entropy by manually evaluating the equation
       as given above

For convenience we print out the resulting values for sn=1 - 12:
 sn= 1  qrot/sn=    3948.4593 T*S(rot)=     5.80 kcal/mol T*S(tot)=    18.09 kcal/mol
 sn= 2  qrot/sn=    1974.2296 T*S(rot)=     5.38 kcal/mol T*S(tot)=    17.68 kcal/mol
 sn= 3  qrot/sn=    1316.1531 T*S(rot)=     5.14 kcal/mol T*S(tot)=    17.44 kcal/mol
 sn= 4  qrot/sn=     987.1148 T*S(rot)=     4.97 kcal/mol T*S(tot)=    17.27 kcal/mol
 sn= 5  qrot/sn=     789.6919 T*S(rot)=     4.84 kcal/mol T*S(tot)=    17.13 kcal/mol
 sn= 6  qrot/sn=     658.0765 T*S(rot)=     4.73 kcal/mol T*S(tot)=    17.03 kcal/mol
 sn= 7  qrot/sn=     564.0656 T*S(rot)=     4.64 kcal/mol T*S(tot)=    16.93 kcal/mol
 sn= 8  qrot/sn=     493.5574 T*S(rot)=     4.56 kcal/mol T*S(tot)=    16.85 kcal/mol
 sn= 9  qrot/sn=     438.7177 T*S(rot)=     4.49 kcal/mol T*S(tot)=    16.78 kcal/mol
 sn=10  qrot/sn=     394.8459 T*S(rot)=     4.43 kcal/mol T*S(tot)=    16.72 kcal/mol
 sn=11  qrot/sn=     358.9508 T*S(rot)=     4.37 kcal/mol T*S(tot)=    16.67 kcal/mol
 sn=12  qrot/sn=     329.0383 T*S(rot)=     4.32 kcal/mol T*S(tot)=    16.61 kcal/mol


-------------------
GIBBS FREE ENTHALPY
-------------------

The Gibbs free enthalpy is G = H - T*S

Total enthalpy                    ...    -78.97568259 Eh 
Total entropy correction          ...     -0.02778591 Eh    -17.44 kcal/mol
-----------------------------------------------------------------------
Final Gibbs free enthalpy         ...    -79.00346850 Eh

For completeness - the Gibbs free enthalpy minus the electronic energy
G-E(el)                           ...      0.03591551 Eh     22.54 kcal/mol


Total Time for Numerical Frequencies  :       256.040 sec

Timings for individual modules:

Sum of individual times         ...      161.619 sec (=   2.694 min)
GTO integral calculation        ...       29.151 sec (=   0.486 min)  18.0 %
SCF iterations                  ...       58.844 sec (=   0.981 min)  36.4 %
SCF Gradient evaluation         ...       41.831 sec (=   0.697 min)  25.9 %
Geometry relaxation             ...       31.794 sec (=   0.530 min)  19.7 %
                             ****ORCA TERMINATED NORMALLY****
TOTAL RUN TIME: 0 days 0 hours 7 minutes 20 seconds 927 msec
